nqpoint: 2      
npath: 1      
segment_nqpoint:
- 2
reciprocal_lattice:
- [   0.12945221,  -0.07473927,  -0.05284864 ] # a*
- [   0.00000000,   0.14947853,  -0.05284864 ] # b*
- [   0.00000000,   0.00000000,   0.15854592 ] # c*
natom: 16     
lattice:
- [     7.724858760800000,     0.000000000000000,     0.000000000000000 ] # a
- [     3.862429380400000,     6.689923927500000,     0.000000000000000 ] # b
- [     3.862429380400000,     2.229974642500000,     6.307320766400000 ] # c
points:
- symbol: Si # 1
  coordinates: [  0.000000000000000,  0.000000000000000,  0.000000000000000 ]
  mass: 28.085500
- symbol: Si # 2
  coordinates: [  0.000000000000000,  0.000000000000000,  0.500000000000000 ]
  mass: 28.085500
- symbol: Si # 3
  coordinates: [  0.000000000000000,  0.500000000000000,  0.000000000000000 ]
  mass: 28.085500
- symbol: Si # 4
  coordinates: [  0.000000000000000,  0.500000000000000,  0.500000000000000 ]
  mass: 28.085500
- symbol: Si # 5
  coordinates: [  0.500000000000000,  0.000000000000000,  0.000000000000000 ]
  mass: 28.085500
- symbol: Si # 6
  coordinates: [  0.500000000000000,  0.000000000000000,  0.500000000000000 ]
  mass: 28.085500
- symbol: Si # 7
  coordinates: [  0.500000000000000,  0.500000000000000,  0.000000000000000 ]
  mass: 28.085500
- symbol: Si # 8
  coordinates: [  0.500000000000000,  0.500000000000000,  0.500000000000000 ]
  mass: 28.085500
- symbol: Si # 9
  coordinates: [  0.125000000000000,  0.125000000000000,  0.125000000000000 ]
  mass: 28.085500
- symbol: Si # 10
  coordinates: [  0.125000000000000,  0.125000000000000,  0.625000000000000 ]
  mass: 28.085500
- symbol: Si # 11
  coordinates: [  0.125000000000000,  0.625000000000000,  0.125000000000000 ]
  mass: 28.085500
- symbol: Si # 12
  coordinates: [  0.125000000000000,  0.625000000000000,  0.625000000000000 ]
  mass: 28.085500
- symbol: Si # 13
  coordinates: [  0.625000000000000,  0.125000000000000,  0.125000000000000 ]
  mass: 28.085500
- symbol: Si # 14
  coordinates: [  0.625000000000000,  0.125000000000000,  0.625000000000000 ]
  mass: 28.085500
- symbol: Si # 15
  coordinates: [  0.625000000000000,  0.625000000000000,  0.125000000000000 ]
  mass: 28.085500
- symbol: Si # 16
  coordinates: [  0.625000000000000,  0.625000000000000,  0.625000000000000 ]
  mass: 28.085500

phonon:
- q-position: [    0.0000000,    0.0000000,    0.0000000 ]
  distance:    0.0000000
  band:
  - # 1
    frequency:   -4.9636966920
    eigenvector:
    - # atom 1
      - [ -0.10266040357002,  0.00000000000000 ]
      - [  0.28631381307573,  0.00000000000000 ]
      - [  0.01675252194560,  0.00000000000000 ]
    - # atom 2
      - [ -0.06606891120625,  0.00000000000000 ]
      - [  0.02409361779796,  0.00000000000000 ]
      - [ -0.00391168556034,  0.00000000000000 ]
    - # atom 3
      - [  0.24639548038172,  0.00000000000000 ]
      - [ -0.01877366343623,  0.00000000000000 ]
      - [ -0.00361186605634,  0.00000000000000 ]
    - # atom 4
      - [ -0.07766616561252,  0.00000000000000 ]
      - [ -0.29163376745018,  0.00000000000000 ]
      - [ -0.00922897032795,  0.00000000000000 ]
    - # atom 5
      - [ -0.07766616560691,  0.00000000000000 ]
      - [ -0.29163376744114,  0.00000000000000 ]
      - [ -0.00922897032915,  0.00000000000000 ]
    - # atom 6
      - [  0.24639548038715,  0.00000000000000 ]
      - [ -0.01877366343142,  0.00000000000000 ]
      - [ -0.00361186605055,  0.00000000000000 ]
    - # atom 7
      - [ -0.06606891120071,  0.00000000000000 ]
      - [  0.02409361779997,  0.00000000000000 ]
      - [ -0.00391168556061,  0.00000000000000 ]
    - # atom 8
      - [ -0.10266040357087,  0.00000000000000 ]
      - [  0.28631381308532,  0.00000000000000 ]
      - [  0.01675252193885,  0.00000000000000 ]
    - # atom 9
      - [  0.08197926090913,  0.00000000000000 ]
      - [ -0.01887966563862,  0.00000000000000 ]
      - [ -0.00391168556053,  0.00000000000000 ]
    - # atom 10
      - [  0.10247680236831,  0.00000000000000 ]
      - [ -0.28244792276454,  0.00000000000000 ]
      - [  0.01675252194628,  0.00000000000000 ]
    - # atom 11
      - [  0.07784976680958,  0.00000000000000 ]
      - [  0.27712796838823,  0.00000000000000 ]
      - [ -0.00922897032690,  0.00000000000000 ]
    - # atom 12
      - [ -0.26230583009226,  0.00000000000000 ]
      - [  0.02419962000027,  0.00000000000000 ]
      - [ -0.00361186605661,  0.00000000000000 ]
    - # atom 13
      - [ -0.26230583008333,  0.00000000000000 ]
      - [  0.02419962000401,  0.00000000000000 ]
      - [ -0.00361186605000,  0.00000000000000 ]
    - # atom 14
      - [  0.07784976681168,  0.00000000000000 ]
      - [  0.27712796840069,  0.00000000000000 ]
      - [ -0.00922897032999,  0.00000000000000 ]
    - # atom 15
      - [  0.10247680237073,  0.00000000000000 ]
      - [ -0.28244792275432,  0.00000000000000 ]
      - [  0.01675252193792,  0.00000000000000 ]
    - # atom 16
      - [  0.08197926090939,  0.00000000000000 ]
      - [ -0.01887966563555,  0.00000000000000 ]
      - [ -0.00391168556022,  0.00000000000000 ]
  - # 2
    frequency:   -4.9636966920
    eigenvector:
    - # atom 1
      - [  0.28129018046704,  0.00000000000000 ]
      - [  0.11124427585450,  0.00000000000000 ]
      - [ -0.07366808510042,  0.00000000000000 ]
    - # atom 2
      - [ -0.23764939161050,  0.00000000000000 ]
      - [ -0.22746198905673,  0.00000000000000 ]
      - [  0.04493858433554,  0.00000000000000 ]
    - # atom 3
      - [ -0.08622471457813,  0.00000000000000 ]
      - [  0.17126927982846,  0.00000000000000 ]
      - [  0.03452990718022,  0.00000000000000 ]
    - # atom 4
      - [  0.04258392572763,  0.00000000000000 ]
      - [ -0.05505156661916,  0.00000000000000 ]
      - [ -0.00580040640698,  0.00000000000000 ]
    - # atom 5
      - [  0.04258392572626,  0.00000000000000 ]
      - [ -0.05505156661693,  0.00000000000000 ]
      - [ -0.00580040640460,  0.00000000000000 ]
    - # atom 6
      - [ -0.08622471457609,  0.00000000000000 ]
      - [  0.17126927982466,  0.00000000000000 ]
      - [  0.03452990718360,  0.00000000000000 ]
    - # atom 7
      - [ -0.23764939160962,  0.00000000000000 ]
      - [ -0.22746198907518,  0.00000000000000 ]
      - [  0.04493858432589,  0.00000000000000 ]
    - # atom 8
      - [  0.28129018045315,  0.00000000000000 ]
      - [  0.11124427586008,  0.00000000000000 ]
      - [ -0.07366808511232,  0.00000000000000 ]
    - # atom 9
      - [  0.19608909590230,  0.00000000000000 ]
      - [  0.17494930292727,  0.00000000000000 ]
      - [  0.04493858433691,  0.00000000000000 ]
    - # atom 10
      - [ -0.27491619347674,  0.00000000000000 ]
      - [ -0.07904641453258,  0.00000000000000 ]
      - [ -0.07366808509995,  0.00000000000000 ]
    - # atom 11
      - [ -0.04895791270142,  0.00000000000000 ]
      - [  0.13523912376724,  0.00000000000000 ]
      - [ -0.00580040640691,  0.00000000000000 ]
    - # atom 12
      - [  0.12778501028507,  0.00000000000000 ]
      - [ -0.23114201215812,  0.00000000000000 ]
      - [  0.03452990718052,  0.00000000000000 ]
    - # atom 13
      - [  0.12778501029169,  0.00000000000000 ]
      - [ -0.23114201217033,  0.00000000000000 ]
      - [  0.03452990718304,  0.00000000000000 ]
    - # atom 14
      - [ -0.04895791270834,  0.00000000000000 ]
      - [  0.13523912377958,  0.00000000000000 ]
      - [ -0.00580040640500,  0.00000000000000 ]
    - # atom 15
      - [ -0.27491619348691,  0.00000000000000 ]
      - [ -0.07904641453548,  0.00000000000000 ]
      - [ -0.07366808511172,  0.00000000000000 ]
    - # atom 16
      - [  0.19608909589747,  0.00000000000000 ]
      - [  0.17494930292153,  0.00000000000000 ]
      - [  0.04493858432587,  0.00000000000000 ]
  - # 3
    frequency:   -4.9636966920
    eigenvector:
    - # atom 1
      - [  0.03457550875644,  0.00000000000000 ]
      - [ -0.00148557940321,  0.00000000000000 ]
      - [  0.03744671667395,  0.00000000000000 ]
    - # atom 2
      - [ -0.21588726637179,  0.00000000000000 ]
      - [  0.23949609160635,  0.00000000000000 ]
      - [ -0.09120851475654,  0.00000000000000 ]
    - # atom 3
      - [ -0.10413898524487,  0.00000000000000 ]
      - [ -0.13868270209638,  0.00000000000000 ]
      - [ -0.05136314796221,  0.00000000000000 ]
    - # atom 4
      - [  0.28545074285750,  0.00000000000000 ]
      - [ -0.09932781011172,  0.00000000000000 ]
      - [  0.10512494604282,  0.00000000000000 ]
    - # atom 5
      - [  0.28545074285690,  0.00000000000000 ]
      - [ -0.09932781011125,  0.00000000000000 ]
      - [  0.10512494604922,  0.00000000000000 ]
    - # atom 6
      - [ -0.10413898524913,  0.00000000000000 ]
      - [ -0.13868270209276,  0.00000000000000 ]
      - [ -0.05136314796642,  0.00000000000000 ]
    - # atom 7
      - [ -0.21588726636279,  0.00000000000000 ]
      - [  0.23949609161157,  0.00000000000000 ]
      - [ -0.09120851476069,  0.00000000000000 ]
    - # atom 8
      - [  0.03457550875865,  0.00000000000000 ]
      - [ -0.00148557940432,  0.00000000000000 ]
      - [  0.03744671667754,  0.00000000000000 ]
    - # atom 9
      - [  0.17444298420495,  0.00000000000000 ]
      - [ -0.15277016662544,  0.00000000000000 ]
      - [ -0.09120851475761,  0.00000000000000 ]
    - # atom 10
      - [ -0.05897571307525,  0.00000000000000 ]
      - [ -0.12325567757389,  0.00000000000000 ]
      - [  0.03744671667434,  0.00000000000000 ]
    - # atom 11
      - [ -0.26105053854165,  0.00000000000000 ]
      - [  0.02244228806034,  0.00000000000000 ]
      - [  0.10512494604413,  0.00000000000000 ]
    - # atom 12
      - [  0.14558326740956,  0.00000000000000 ]
      - [  0.25358355613809,  0.00000000000000 ]
      - [ -0.05136314796251,  0.00000000000000 ]
    - # atom 13
      - [  0.14558326740876,  0.00000000000000 ]
      - [  0.25358355614042,  0.00000000000000 ]
      - [ -0.05136314796634,  0.00000000000000 ]
    - # atom 14
      - [ -0.26105053854419,  0.00000000000000 ]
      - [  0.02244228805969,  0.00000000000000 ]
      - [  0.10512494604865,  0.00000000000000 ]
    - # atom 15
      - [ -0.05897571306781,  0.00000000000000 ]
      - [ -0.12325567757364,  0.00000000000000 ]
      - [  0.03744671667788,  0.00000000000000 ]
    - # atom 16
      - [  0.17444298420667,  0.00000000000000 ]
      - [ -0.15277016662264,  0.00000000000000 ]
      - [ -0.09120851475932,  0.00000000000000 ]
  - # 4
    frequency:   -4.9636966920
    eigenvector:
    - # atom 1
      - [  0.05703357518678,  0.00000000000000 ]
      - [  0.04049219808522,  0.00000000000000 ]
      - [  0.33804476540752,  0.00000000000000 ]
    - # atom 2
      - [  0.13026624072246,  0.00000000000000 ]
      - [  0.00658549196677,  0.00000000000000 ]
      - [ -0.07536132258964,  0.00000000000000 ]
    - # atom 3
      - [ -0.18853184354061,  0.00000000000000 ]
      - [  0.10107321083843,  0.00000000000000 ]
      - [ -0.07689107502171,  0.00000000000000 ]
    - # atom 4
      - [  0.00123202762874,  0.00000000000000 ]
      - [ -0.14815090089009,  0.00000000000000 ]
      - [ -0.18579236780020,  0.00000000000000 ]
    - # atom 5
      - [  0.00123202762809,  0.00000000000000 ]
      - [ -0.14815090088440,  0.00000000000000 ]
      - [ -0.18579236780208,  0.00000000000000 ]
    - # atom 6
      - [ -0.18853184353519,  0.00000000000000 ]
      - [  0.10107321082882,  0.00000000000000 ]
      - [ -0.07689107502899,  0.00000000000000 ]
    - # atom 7
      - [  0.13026624072144,  0.00000000000000 ]
      - [  0.00658549197359,  0.00000000000000 ]
      - [ -0.07536132258762,  0.00000000000000 ]
    - # atom 8
      - [  0.05703357518156,  0.00000000000000 ]
      - [  0.04049219808160,  0.00000000000000 ]
      - [  0.33804476541894,  0.00000000000000 ]
    - # atom 9
      - [  0.19051718045037,  0.00000000000000 ]
      - [  0.10161405999628,  0.00000000000000 ]
      - [ -0.07536132258944,  0.00000000000000 ]
    - # atom 10
      - [ -0.05609679695803,  0.00000000000000 ]
      - [  0.03705349367451,  0.00000000000000 ]
      - [  0.33804476541063,  0.00000000000000 ]
    - # atom 11
      - [ -0.00216880585593,  0.00000000000000 ]
      - [ -0.14471219647872,  0.00000000000000 ]
      - [ -0.18579236780176,  0.00000000000000 ]
    - # atom 12
      - [ -0.13225157764008,  0.00000000000000 ]
      - [  0.00604464280814,  0.00000000000000 ]
      - [ -0.07689107502163,  0.00000000000000 ]
    - # atom 13
      - [ -0.13225157763366,  0.00000000000000 ]
      - [  0.00604464281076,  0.00000000000000 ]
      - [ -0.07689107502919,  0.00000000000000 ]
    - # atom 14
      - [ -0.00216880585438,  0.00000000000000 ]
      - [ -0.14471219648526,  0.00000000000000 ]
      - [ -0.18579236780189,  0.00000000000000 ]
    - # atom 15
      - [ -0.05609679696147,  0.00000000000000 ]
      - [  0.03705349368377,  0.00000000000000 ]
      - [  0.33804476541879,  0.00000000000000 ]
    - # atom 16
      - [  0.19051718045161,  0.00000000000000 ]
      - [  0.10161405999291,  0.00000000000000 ]
      - [ -0.07536132258699,  0.00000000000000 ]
  - # 5
    frequency:   -4.9636966920
    eigenvector:
    - # atom 1
      - [  0.05579477474829,  0.00000000000000 ]
      - [  0.15243118100603,  0.00000000000000 ]
      - [ -0.05275120279408,  0.00000000000000 ]
    - # atom 2
      - [  0.01450486485019,  0.00000000000000 ]
      - [  0.04250753981326,  0.00000000000000 ]
      - [  0.27669281726810,  0.00000000000000 ]
    - # atom 3
      - [ -0.09417939802973,  0.00000000000000 ]
      - [ -0.25661152653962,  0.00000000000000 ]
      - [  0.02609594450978,  0.00000000000000 ]
    - # atom 4
      - [  0.02387975842886,  0.00000000000000 ]
      - [  0.06167280571430,  0.00000000000000 ]
      - [ -0.25003755897825,  0.00000000000000 ]
    - # atom 5
      - [  0.02387975843534,  0.00000000000000 ]
      - [  0.06167280570870,  0.00000000000000 ]
      - [ -0.25003755896636,  0.00000000000000 ]
    - # atom 6
      - [ -0.09417939802824,  0.00000000000000 ]
      - [ -0.25661152651970,  0.00000000000000 ]
      - [  0.02609594451010,  0.00000000000000 ]
    - # atom 7
      - [  0.01450486484645,  0.00000000000000 ]
      - [  0.04250753981998,  0.00000000000000 ]
      - [  0.27669281725078,  0.00000000000000 ]
    - # atom 8
      - [  0.05579477474742,  0.00000000000000 ]
      - [  0.15243118099709,  0.00000000000000 ]
      - [ -0.05275120279675,  0.00000000000000 ]
    - # atom 9
      - [  0.10630786161579,  0.00000000000000 ]
      - [ -0.16801215250152,  0.00000000000000 ]
      - [  0.27669281726771,  0.00000000000000 ]
    - # atom 10
      - [  0.09766384259285,  0.00000000000000 ]
      - [  0.13142406586056,  0.00000000000000 ]
      - [ -0.05275120279430,  0.00000000000000 ]
    - # atom 11
      - [ -0.17733837577878,  0.00000000000000 ]
      - [  0.08267992085696,  0.00000000000000 ]
      - [ -0.25003755898070,  0.00000000000000 ]
    - # atom 12
      - [ -0.02663332843384,  0.00000000000000 ]
      - [ -0.04609183422279,  0.00000000000000 ]
      - [  0.02609594450988,  0.00000000000000 ]
    - # atom 13
      - [ -0.02663332843156,  0.00000000000000 ]
      - [ -0.04609183420874,  0.00000000000000 ]
      - [  0.02609594450959,  0.00000000000000 ]
    - # atom 14
      - [ -0.17733837577043,  0.00000000000000 ]
      - [  0.08267992085724,  0.00000000000000 ]
      - [ -0.25003755896604,  0.00000000000000 ]
    - # atom 15
      - [  0.09766384259502,  0.00000000000000 ]
      - [  0.13142406584833,  0.00000000000000 ]
      - [ -0.05275120279710,  0.00000000000000 ]
    - # atom 16
      - [  0.10630786161092,  0.00000000000000 ]
      - [ -0.16801215249271,  0.00000000000000 ]
      - [  0.27669281724957,  0.00000000000000 ]
  - # 6
    frequency:   -4.9636966920
    eigenvector:
    - # atom 1
      - [ -0.16665930674096,  0.00000000000000 ]
      - [  0.07597382138120,  0.00000000000000 ]
      - [ -0.02886445626376,  0.00000000000000 ]
    - # atom 2
      - [  0.01925277340339,  0.00000000000000 ]
      - [ -0.11606852961769,  0.00000000000000 ]
      - [ -0.18002217953727,  0.00000000000000 ]
    - # atom 3
      - [ -0.03994524444554,  0.00000000000000 ]
      - [  0.00402765349153,  0.00000000000000 ]
      - [  0.33847190610547,  0.00000000000000 ]
    - # atom 4
      - [  0.18735177778618,  0.00000000000000 ]
      - [  0.03606705475911,  0.00000000000000 ]
      - [ -0.12958527031291,  0.00000000000000 ]
    - # atom 5
      - [  0.18735177776847,  0.00000000000000 ]
      - [  0.03606705475808,  0.00000000000000 ]
      - [ -0.12958527030562,  0.00000000000000 ]
    - # atom 6
      - [ -0.03994524444036,  0.00000000000000 ]
      - [  0.00402765348558,  0.00000000000000 ]
      - [  0.33847190611726,  0.00000000000000 ]
    - # atom 7
      - [  0.01925277339697,  0.00000000000000 ]
      - [ -0.11606852963111,  0.00000000000000 ]
      - [ -0.18002217953992,  0.00000000000000 ]
    - # atom 8
      - [ -0.16665930673087,  0.00000000000000 ]
      - [  0.07597382137798,  0.00000000000000 ]
      - [ -0.02886445626664,  0.00000000000000 ]
    - # atom 9
      - [  0.04242587681431,  0.00000000000000 ]
      - [ -0.17928768848888,  0.00000000000000 ]
      - [ -0.18002217953780,  0.00000000000000 ]
    - # atom 10
      - [ -0.15085217938103,  0.00000000000000 ]
      - [  0.07167724007017,  0.00000000000000 ]
      - [ -0.02886445626399,  0.00000000000000 ]
    - # atom 11
      - [  0.13015970834307,  0.00000000000000 ]
      - [  0.04036363606973,  0.00000000000000 ]
      - [ -0.12958527031398,  0.00000000000000 ]
    - # atom 12
      - [ -0.02173340577248,  0.00000000000000 ]
      - [  0.06724681236293,  0.00000000000000 ]
      - [  0.33847190610557,  0.00000000000000 ]
    - # atom 13
      - [ -0.02173340578568,  0.00000000000000 ]
      - [  0.06724681235313,  0.00000000000000 ]
      - [  0.33847190611705,  0.00000000000000 ]
    - # atom 14
      - [  0.13015970834412,  0.00000000000000 ]
      - [  0.04036363607102,  0.00000000000000 ]
      - [ -0.12958527030537,  0.00000000000000 ]
    - # atom 15
      - [ -0.15085217939054,  0.00000000000000 ]
      - [  0.07167724006319,  0.00000000000000 ]
      - [ -0.02886445626686,  0.00000000000000 ]
    - # atom 16
      - [  0.04242587682628,  0.00000000000000 ]
      - [ -0.17928768850146,  0.00000000000000 ]
      - [ -0.18002217953834,  0.00000000000000 ]
  - # 7
    frequency:   -4.0846143626
    eigenvector:
    - # atom 1
      - [  0.01916700868921,  0.00000000000000 ]
      - [ -0.29316147383192,  0.00000000000000 ]
      - [ -0.00537632590160,  0.00000000000000 ]
    - # atom 2
      - [ -0.04419270920715,  0.00000000000000 ]
      - [  0.03560867685528,  0.00000000000000 ]
      - [  0.00086426321452,  0.00000000000000 ]
    - # atom 3
      - [ -0.29576510376604,  0.00000000000000 ]
      - [ -0.01981159258576,  0.00000000000000 ]
      - [ -0.03471611489392,  0.00000000000000 ]
    - # atom 4
      - [ -0.02386651841061,  0.00000000000000 ]
      - [ -0.26290033102135,  0.00000000000000 ]
      - [ -0.04095670400881,  0.00000000000000 ]
    - # atom 5
      - [  0.02386651841378,  0.00000000000000 ]
      - [  0.26290033103424,  0.00000000000000 ]
      - [  0.04095670400788,  0.00000000000000 ]
    - # atom 6
      - [  0.29576510376037,  0.00000000000000 ]
      - [  0.01981159258005,  0.00000000000000 ]
      - [  0.03471611489402,  0.00000000000000 ]
    - # atom 7
      - [  0.04419270920943,  0.00000000000000 ]
      - [ -0.03560867685077,  0.00000000000000 ]
      - [ -0.00086426321205,  0.00000000000000 ]
    - # atom 8
      - [ -0.01916700869107,  0.00000000000000 ]
      - [  0.29316147382151,  0.00000000000000 ]
      - [  0.00537632590075,  0.00000000000000 ]
    - # atom 9
      - [ -0.14846214293847,  0.00000000000000 ]
      - [ -0.00723202926676,  0.00000000000000 ]
      - [  0.00086426321452,  0.00000000000000 ]
    - # atom 10
      - [  0.12343644241753,  0.00000000000000 ]
      - [ -0.25032076770363,  0.00000000000000 ]
      - [ -0.00537632590214,  0.00000000000000 ]
    - # atom 11
      - [ -0.12813595214051,  0.00000000000000 ]
      - [ -0.30574103714782,  0.00000000000000 ]
      - [ -0.04095670400908,  0.00000000000000 ]
    - # atom 12
      - [ -0.19149567003281,  0.00000000000000 ]
      - [  0.02302911353664,  0.00000000000000 ]
      - [ -0.03471611489422,  0.00000000000000 ]
    - # atom 13
      - [  0.19149567003903,  0.00000000000000 ]
      - [ -0.02302911353309,  0.00000000000000 ]
      - [  0.03471611489352,  0.00000000000000 ]
    - # atom 14
      - [  0.12813595213429,  0.00000000000000 ]
      - [  0.30574103713992,  0.00000000000000 ]
      - [  0.04095670400806,  0.00000000000000 ]
    - # atom 15
      - [ -0.12343644241555,  0.00000000000000 ]
      - [  0.25032076771349,  0.00000000000000 ]
      - [  0.00537632590088,  0.00000000000000 ]
    - # atom 16
      - [  0.14846214293196,  0.00000000000000 ]
      - [  0.00723202926201,  0.00000000000000 ]
      - [ -0.00086426321187,  0.00000000000000 ]
  - # 8
    frequency:   -4.0846143626
    eigenvector:
    - # atom 1
      - [  0.30867815228677,  0.00000000000000 ]
      - [  0.12367289736460,  0.00000000000000 ]
      - [ -0.01416449507220,  0.00000000000000 ]
    - # atom 2
      - [  0.13669572589365,  0.00000000000000 ]
      - [  0.12477460550360,  0.00000000000000 ]
      - [ -0.05155674482062,  0.00000000000000 ]
    - # atom 3
      - [ -0.08839961246918,  0.00000000000000 ]
      - [  0.28177800505486,  0.00000000000000 ]
      - [ -0.04212355278232,  0.00000000000000 ]
    - # atom 4
      - [ -0.11219971448909,  0.00000000000000 ]
      - [ -0.02666022813715,  0.00000000000000 ]
      - [ -0.00473130302810,  0.00000000000000 ]
    - # atom 5
      - [  0.11219971449207,  0.00000000000000 ]
      - [  0.02666022813834,  0.00000000000000 ]
      - [  0.00473130302917,  0.00000000000000 ]
    - # atom 6
      - [  0.08839961247280,  0.00000000000000 ]
      - [ -0.28177800506628,  0.00000000000000 ]
      - [  0.04212355278078,  0.00000000000000 ]
    - # atom 7
      - [ -0.13669572589268,  0.00000000000000 ]
      - [ -0.12477460549456,  0.00000000000000 ]
      - [  0.05155674482581,  0.00000000000000 ]
    - # atom 8
      - [ -0.30867815229175,  0.00000000000000 ]
      - [ -0.12367289736298,  0.00000000000000 ]
      - [  0.01416449506872,  0.00000000000000 ]
    - # atom 9
      - [  0.23458699010003,  0.00000000000000 ]
      - [  0.27844286802312,  0.00000000000000 ]
      - [ -0.05155674482040,  0.00000000000000 ]
    - # atom 10
      - [  0.21078688808588,  0.00000000000000 ]
      - [ -0.02999536516869,  0.00000000000000 ]
      - [ -0.01416449507171,  0.00000000000000 ]
    - # atom 11
      - [ -0.01430845028513,  0.00000000000000 ]
      - [  0.12700803439498,  0.00000000000000 ]
      - [ -0.00473130302800,  0.00000000000000 ]
    - # atom 12
      - [ -0.18629087667949,  0.00000000000000 ]
      - [  0.12810974253371,  0.00000000000000 ]
      - [ -0.04212355278251,  0.00000000000000 ]
    - # atom 13
      - [  0.18629087667880,  0.00000000000000 ]
      - [ -0.12810974252618,  0.00000000000000 ]
      - [  0.04212355278052,  0.00000000000000 ]
    - # atom 14
      - [  0.01430845027973,  0.00000000000000 ]
      - [ -0.12700803439344,  0.00000000000000 ]
      - [  0.00473130302930,  0.00000000000000 ]
    - # atom 15
      - [ -0.21078688807715,  0.00000000000000 ]
      - [  0.02999536516737,  0.00000000000000 ]
      - [  0.01416449506875,  0.00000000000000 ]
    - # atom 16
      - [ -0.23458699010331,  0.00000000000000 ]
      - [ -0.27844286803748,  0.00000000000000 ]
      - [  0.05155674482534,  0.00000000000000 ]
  - # 9
    frequency:   -4.0846143626
    eigenvector:
    - # atom 1
      - [  0.00495646231024,  0.00000000000000 ]
      - [ -0.16232345186732,  0.00000000000000 ]
      - [  0.00784378633324,  0.00000000000000 ]
    - # atom 2
      - [  0.15286768881963,  0.00000000000000 ]
      - [  0.29480741661858,  0.00000000000000 ]
      - [ -0.06790327323399,  0.00000000000000 ]
    - # atom 3
      - [ -0.06952032700969,  0.00000000000000 ]
      - [ -0.13822449476768,  0.00000000000000 ]
      - [ -0.05030757953804,  0.00000000000000 ]
    - # atom 4
      - [  0.03718735121261,  0.00000000000000 ]
      - [  0.28315049384672,  0.00000000000000 ]
      - [  0.02543948003043,  0.00000000000000 ]
    - # atom 5
      - [ -0.03718735121504,  0.00000000000000 ]
      - [ -0.28315049385370,  0.00000000000000 ]
      - [ -0.02543948003105,  0.00000000000000 ]
    - # atom 6
      - [  0.06952032700931,  0.00000000000000 ]
      - [  0.13822449476305,  0.00000000000000 ]
      - [  0.05030757952749,  0.00000000000000 ]
    - # atom 7
      - [ -0.15286768881413,  0.00000000000000 ]
      - [ -0.29480741660916,  0.00000000000000 ]
      - [  0.06790327323474,  0.00000000000000 ]
    - # atom 8
      - [ -0.00495646231105,  0.00000000000000 ]
      - [  0.16232345186514,  0.00000000000000 ]
      - [ -0.00784378632478,  0.00000000000000 ]
    - # atom 9
      - [  0.02555823645359,  0.00000000000000 ]
      - [ -0.14444551193317,  0.00000000000000 ]
      - [ -0.06790327323540,  0.00000000000000 ]
    - # atom 10
      - [  0.13226591467820,  0.00000000000000 ]
      - [  0.27692947668007,  0.00000000000000 ]
      - [  0.00784378633254,  0.00000000000000 ]
    - # atom 11
      - [ -0.09012210115304,  0.00000000000000 ]
      - [ -0.15610243469983,  0.00000000000000 ]
      - [  0.02543948002995,  0.00000000000000 ]
    - # atom 12
      - [  0.05778912535258,  0.00000000000000 ]
      - [  0.30102843378666,  0.00000000000000 ]
      - [ -0.05030757953831,  0.00000000000000 ]
    - # atom 13
      - [ -0.05778912535656,  0.00000000000000 ]
      - [ -0.30102843377890,  0.00000000000000 ]
      - [  0.05030757952720,  0.00000000000000 ]
    - # atom 14
      - [  0.09012210114862,  0.00000000000000 ]
      - [  0.15610243469502,  0.00000000000000 ]
      - [ -0.02543948003182,  0.00000000000000 ]
    - # atom 15
      - [ -0.13226591467074,  0.00000000000000 ]
      - [ -0.27692947668193,  0.00000000000000 ]
      - [ -0.00784378632514,  0.00000000000000 ]
    - # atom 16
      - [ -0.02555823645084,  0.00000000000000 ]
      - [  0.14444551193371,  0.00000000000000 ]
      - [  0.06790327323424,  0.00000000000000 ]
  - # 10
    frequency:   -4.0846143626
    eigenvector:
    - # atom 1
      - [ -0.20995957247483,  0.00000000000000 ]
      - [  0.11364969661643,  0.00000000000000 ]
      - [  0.04878102183470,  0.00000000000000 ]
    - # atom 2
      - [  0.25608209813544,  0.00000000000000 ]
      - [ -0.04086490509149,  0.00000000000000 ]
      - [  0.00078488697714,  0.00000000000000 ]
    - # atom 3
      - [ -0.17081025593348,  0.00000000000000 ]
      - [  0.12846486147246,  0.00000000000000 ]
      - [  0.01544940042834,  0.00000000000000 ]
    - # atom 4
      - [  0.26716305095417,  0.00000000000000 ]
      - [ -0.04531069304488,  0.00000000000000 ]
      - [  0.06344553530009,  0.00000000000000 ]
    - # atom 5
      - [ -0.26716305095827,  0.00000000000000 ]
      - [  0.04531069303917,  0.00000000000000 ]
      - [ -0.06344553529881,  0.00000000000000 ]
    - # atom 6
      - [  0.17081025593682,  0.00000000000000 ]
      - [ -0.12846486147459,  0.00000000000000 ]
      - [ -0.01544940044180,  0.00000000000000 ]
    - # atom 7
      - [ -0.25608209814120,  0.00000000000000 ]
      - [  0.04086490509730,  0.00000000000000 ]
      - [ -0.00078488696955,  0.00000000000000 ]
    - # atom 8
      - [  0.20995957248326,  0.00000000000000 ]
      - [ -0.11364969661292,  0.00000000000000 ]
      - [ -0.04878102183893,  0.00000000000000 ]
    - # atom 9
      - [ -0.19592539061462,  0.00000000000000 ]
      - [  0.12328017301965,  0.00000000000000 ]
      - [  0.00078488697732,  0.00000000000000 ]
    - # atom 10
      - [  0.24204791627739,  0.00000000000000 ]
      - [ -0.05049538150220,  0.00000000000000 ]
      - [  0.04878102183473,  0.00000000000000 ]
    - # atom 11
      - [ -0.18484443780304,  0.00000000000000 ]
      - [  0.11883438507325,  0.00000000000000 ]
      - [  0.06344553530086,  0.00000000000000 ]
    - # atom 12
      - [  0.28119723282025,  0.00000000000000 ]
      - [ -0.03568021664027,  0.00000000000000 ]
      - [  0.01544940042843,  0.00000000000000 ]
    - # atom 13
      - [ -0.28119723281844,  0.00000000000000 ]
      - [  0.03568021663825,  0.00000000000000 ]
      - [ -0.01544940044095,  0.00000000000000 ]
    - # atom 14
      - [  0.18484443779321,  0.00000000000000 ]
      - [ -0.11883438506752,  0.00000000000000 ]
      - [ -0.06344553529810,  0.00000000000000 ]
    - # atom 15
      - [ -0.24204791627316,  0.00000000000000 ]
      - [  0.05049538149458,  0.00000000000000 ]
      - [ -0.04878102183800,  0.00000000000000 ]
    - # atom 16
      - [  0.19592539061771,  0.00000000000000 ]
      - [ -0.12328017301545,  0.00000000000000 ]
      - [ -0.00078488696876,  0.00000000000000 ]
  - # 11
    frequency:   -4.0846143626
    eigenvector:
    - # atom 1
      - [ -0.03694113033535,  0.00000000000000 ]
      - [ -0.08457073642011,  0.00000000000000 ]
      - [ -0.01378444937866,  0.00000000000000 ]
    - # atom 2
      - [ -0.23129505463064,  0.00000000000000 ]
      - [  0.21298645074885,  0.00000000000000 ]
      - [ -0.07482693403268,  0.00000000000000 ]
    - # atom 3
      - [  0.15706978646529,  0.00000000000000 ]
      - [  0.21826181030169,  0.00000000000000 ]
      - [ -0.02861817623209,  0.00000000000000 ]
    - # atom 4
      - [  0.24369114051655,  0.00000000000000 ]
      - [ -0.05717156998399,  0.00000000000000 ]
      - [  0.03242430842948,  0.00000000000000 ]
    - # atom 5
      - [ -0.24369114052227,  0.00000000000000 ]
      - [  0.05717156998553,  0.00000000000000 ]
      - [ -0.03242430843935,  0.00000000000000 ]
    - # atom 6
      - [ -0.15706978646729,  0.00000000000000 ]
      - [ -0.21826181031402,  0.00000000000000 ]
      - [  0.02861817622278,  0.00000000000000 ]